variables ="x","Temperature","Time"
ZONE I=3, J=1, F=POINT
0 0 0
0.5 0 0
1 0 0
